TITLE = "MyDevice"
VARIABLES = "x", "y", "AtContactNode", "ContactSurfaceArea", "NSurfaceNormal_x", "NSurfaceNormal_y", "NodeVolume", "SurfaceArea", "coordinate_index", "node_index", "EdgeCouple", "EdgeInverseLength", "EdgeLength", "edge_index", "unitx", "unity", "ElementEdgeCouple", "ElementNodeVolume"
ZONE T="MyOxRegion" NODES=212, ELEMENTS=368, DATAPACKING=BLOCK, ZONETYPE=FETRIANGLE, VARLOCATION=([17,18]=CELLCENTERED)
-5e-08 0 5e-08 -5e-08 0 5e-08 -5e-08 -5e-08 -5e-08 -5e-08 -5e-08 -5e-08 -5e-08 -5e-08 -5e-08 -5e-08 -5e-08 -5e-08 -5e-08 -5e-08 -5e-08 -4.5e-08 -4e-08 -3.5e-08 -3e-08 -2.5e-08 -2e-08 -1.5e-08 -1e-08 -5e-09 5e-09 1e-08 1.5e-08 2e-08 2.5e-08 3e-08 3.5e-08 4e-08 4.5e-08 5e-08 5e-08 5e-08 5e-08 5e-08 5e-08 5e-08 5e-08 5e-08 5e-08 5e-08 5e-08 5e-08 5e-08 5e-08 2.5e-09 2.32019e-08 -2.21393e-08 -2.26055e-09 -4.55773e-10 -2.24427e-08 -3.23978e-08 1.25e-08 3.24997e-08 2.51871e-08 -1.75e-08 -3.21633e-09 1.33404e-08 2.22932e-08 2.62563e-09 -2.5236e-08 -7.5e-09 -3.22944e-08 -7.90893e-09 8.67689e-09 3.59926e-08 -6.66111e-10 -4.03762e-08 4.12053e-08 2.50287e-08 -3.79042e-08 -7.556e-09 -2.81386e-08 1.65067e-08 -2.14104e-08 1.57813e-08 3.02496e-08 3.20902e-08 1.24877e-08 -1.27284e-08 -2.16446e-08 -4.11746e-08 4.16496e-08 2.84624e-08 -7.31095e-09 -1.73745e-08 -3.61044e-08 1.78702e-10 4.09432e-08 1.41342e-08 2.4696e-08 -3.42991e-08 -2.461e-08 -2.53582e-09 -2.47304e-08 2.37862e-08 4.66375e-09 -3.86783e-08 -3.23391e-08 -2.6763e-10 -7.86705e-09 3.89162e-08 -2.86492e-08 2.75296e-08 1.73405e-08 7.56626e-09 -1.13936e-08 7.61214e-09 1.63294e-08 -4.43381e-08 4.48838e-08 3.00819e-08 -1.24754e-08 3.72406e-08 3.10214e-08 -2.25e-08 -2.07781e-08 -3.07581e-08 3.18996e-08 -3.12363e-08 -2.48126e-10 -3.46862e-09 -1.5448e-08 -4.11387e-08 -2.21499e-08 -1.53536e-08 4.48264e-08 -4.4599e-08 1.87029e-08 4.02248e-08 2.83235e-08 2.39285e-08 7.96866e-09 3.42416e-08 -3.87359e-08 9.2337e-09 1.60012e-08 4.25858e-08 1.68202e-09 -3.8067e-08 -1.9662e-08 -1.32487e-08 -2.53277e-08 1.36009e-08 2.04508e-08 1.66649e-08 2.93239e-08 2.30301e-08 -1.83567e-08 -7.50225e-09 -7.41182e-10 2.19483e-08 2.38716e-09 -6.19471e-09 -4.41676e-08 2.24327e-08 -9.80401e-09 3.03599e-09 1.27343e-08 3.19826e-08 -2.74449e-08 -2.76277e-08 -2.75773e-08 4.23124e-08 3.87695e-08 -1.34338e-08 -2.11917e-09 -3.56101e-08 3.55044e-08 -4.15284e-08 -3.73543e-08 3.24667e-08 1.24789e-08 -2.25023e-08 2.26814e-08 9.38348e-09 1.11772e-09 3.15216e-08 -3.25e-08 2.26564e-08 -1.13422e-08 -1.24977e-08 -1.74845e-08 2.35552e-08 -3.56266e-08 4.09432e-08 3.56439e-08 -3.15781e-08 4.60073e-08 -4.58241e-08 -1.747e-08 -2.45336e-08 4.57181e-08 3.87928e-08 -3.11239e-08 -4.50443e-08 -7.63537e-09 -3.82974e-08 3.48362e-08 1.21913e-08 4.12348e-08 -4.75e-08 4.75e-08
-3e-07 -3e-07 -3e-07 0 0 0 -2.55321e-07 -2.16631e-07 -1.83127e-07 -1.54114e-07 -1.28989e-07 -1.07232e-07 -8.83914e-08 -7.20759e-08 -5.79473e-08 -4.57125e-08 -3.51175e-08 -2.59426e-08 -1.79976e-08 -1.11174e-08 -5.1594e-09 0 0 0 0 0 0 0 0 0 0 0 0 0 0 0 0 0 0 -2.55321e-07 -2.16631e-07 -1.83127e-07 -1.54114e-07 -1.28989e-07 -1.07232e-07 -8.83914e-08 -7.20759e-08 -5.79473e-08 -4.57125e-08 -3.51175e-08 -2.59426e-08 -1.79976e-08 -1.11174e-08 -5.1594e-09 -4.74666e-08 -2.70117e-08 -2.62164e-08 -2.0942e-08 -9.78118e-08 -5.53413e-08 -1.55658e-08 -1.54223e-08 -1.5826e-08 -5.27581e-08 -1.4055e-08 -1.52188e-07 -7.10887e-08 -1.05294e-08 -1.03952e-08 -8.02336e-08 -9.73552e-09 -4.05616e-08 -3.46111e-08 -2.8551e-08 -2.77705e-08 -2.00874e-07 -9.71775e-09 -9.11979e-09 -9.44758e-08 -2.6841e-08 -6.62944e-08 -7.60481e-09 -4.0239e-08 -1.18802e-07 -1.22842e-07 -7.0765e-08 -7.44882e-09 -8.90311e-09 -2.34597e-08 -4.0267e-08 -1.90263e-08 -1.90122e-08 -3.78431e-08 -4.90579e-08 -8.17098e-09 -6.59689e-08 -2.51443e-07 -4.0678e-08 -5.84594e-08 -1.90884e-08 -7.19277e-09 -1.90168e-08 -6.07176e-09 -1.67337e-07 -1.6244e-07 -1.72725e-08 -5.14276e-08 -9.83592e-08 -3.13175e-08 -8.20039e-08 -5.21344e-08 -1.39742e-07 -5.22737e-09 -5.39268e-09 -5.48889e-09 -1.63129e-08 -3.8514e-08 -2.27622e-08 -5.64394e-09 -5.21821e-09 -1.41551e-07 -5.17616e-09 -4.97795e-09 -2.30753e-08 -4.78021e-09 -6.64275e-08 -2.31279e-08 -1.14277e-07 -3.10585e-08 -1.17851e-07 -1.45497e-08 -9.2938e-08 -3.55877e-08 -1.05766e-08 -3.24271e-08 -1.46511e-08 -1.38783e-08 -1.59678e-08 -6.42724e-08 -1.14654e-08 -1.93436e-07 -1.14964e-08 -8.4412e-08 -8.10058e-08 -8.65416e-08 -3.23313e-08 -2.53801e-08 -5.89168e-08 -4.46281e-09 -2.25398e-07 -1.06901e-08 -1.94255e-07 -1.06154e-07 -2.26315e-07 -1.12431e-08 -3.08664e-08 -6.23258e-08 -2.04024e-08 -4.19669e-09 -1.76367e-07 -8.08848e-08 -4.37097e-09 -2.69475e-08 -2.45979e-08 -4.22988e-09 -1.33569e-07 -2.47568e-08 -4.86868e-08 -4.37834e-08 -1.29635e-08 -3.10657e-09 -4.87254e-08 -3.29228e-08 -9.83969e-08 -5.77306e-08 -4.07024e-08 -1.14223e-08 -1.12215e-08 -4.32926e-08 -1.18373e-07 -3.38824e-09 -3.95694e-09 -2.74866e-07 -2.75066e-07 -2.1431e-08 -7.31692e-08 -6.04512e-08 -3.14785e-09 -3.42516e-08 -1.06281e-07 -4.11026e-08 -4.87041e-08 -4.37507e-08 -1.98519e-08 -7.59834e-08 -1.98087e-08 -1.09498e-08 -9.4052e-09 -9.7719e-09 -3.62547e-09 -3.41061e-08 -2.12049e-08 -1.47668e-08 -5.71317e-08 -2.98781e-08 -2.08719e-08 -1.49104e-08 -3.5644e-08 -1.38899e-07 -3.71045e-09 -2.5797e-09 -2.5797e-09
1 1 1 0 0 0 0 0 0 0 0 0 0 0 0 0 0 0 0 0 0 0 0 0 0 0 0 0 0 0 0 0 0 0 0 0 0 0 0 0 0 0 0 0 0 0 0 0 0 0 0 0 0 0 0 0 0 0 0 0 0 0 0 0 0 0 0 0 0 0 0 0 0 0 0 0 0 0 0 0 0 0 0 0 0 0 0 0 0 0 0 0 0 0 0 0 0 0 0 0 0 0 0 0 0 0 0 0 0 0 0 0 0 0 0 0 0 0 0 0 0 0 0 0 0 0 0 0 0 0 0 0 0 0 0 0 0 0 0 0 0 0 0 0 0 0 0 0 0 0 0 0 0 0 0 0 0 0 0 0 0 0 0 0 0 0 0 0 0 0 0 0 0 0 0 0 0 0 0 0 0 0 0 0 0 0 0 0 0 0 0 0 0 0 0 0 0 0 0 0 0 0 0 0 0 0 0 0 0 0 0 0
2.5e-08 5e-08 2.5e-08 0 0 0 0 0 0 0 0 0 0 0 0 0 0 0 0 0 0 0 0 0 0 0 0 0 0 0 0 0 0 0 0 0 0 0 0 0 0 0 0 0 0 0 0 0 0 0 0 0 0 0 0 0 0 0 0 0 0 0 0 0 0 0 0 0 0 0 0 0 0 0 0 0 0 0 0 0 0 0 0 0 0 0 0 0 0 0 0 0 0 0 0 0 0 0 0 0 0 0 0 0 0 0 0 0 0 0 0 0 0 0 0 0 0 0 0 0 0 0 0 0 0 0 0 0 0 0 0 0 0 0 0 0 0 0 0 0 0 0 0 0 0 0 0 0 0 0 0 0 0 0 0 0 0 0 0 0 0 0 0 0 0 0 0 0 0 0 0 0 0 0 0 0 0 0 0 0 0 0 0 0 0 0 0 0 0 0 0 0 0 0 0 0 0 0 0 0 0 0 0 0 0 0 0 0 0 0 0 0
0 0 0 0 0 0 0 0 0 0 0 0 0 0 0 0 0 0 0 0 0 0 0 0 0 0 0 0 0 0 0 0 0 0 0 0 0 0 0 0 0 0 0 0 0 0 0 0 0 0 0 0 0 0 0 0 0 0 0 0 0 0 0 0 0 0 0 0 0 0 0 0 0 0 0 0 0 0 0 0 0 0 0 0 0 0 0 0 0 0 0 0 0 0 0 0 0 0 0 0 0 0 0 0 0 0 0 0 0 0 0 0 0 0 0 0 0 0 0 0 0 0 0 0 0 0 0 0 0 0 0 0 0 0 0 0 0 0 0 0 0 0 0 0 0 0 0 0 0 0 0 0 0 0 0 0 0 0 0 0 0 0 0 0 0 0 0 0 0 0 0 0 0 0 0 0 0 0 0 0 0 0 0 0 0 0 0 0 0 0 0 0 0 0 0 0 0 0 0 0 0 0 0 0 0 0 0 0 0 0 0 0
0 0 0 -1 1 1 0 0 0 0 0 0 0 0 0 0 0 0 0 0 0 -1 -1 -1 -1 -1 -1 -1 -1 1 -1 -1 -1 -1 -1 -1 -1 -1 1 0 0 0 0 0 0 0 0 0 0 0 0 0 0 0 0 0 0 0 0 0 0 0 0 0 0 0 0 0 0 0 0 0 0 0 0 0 0 0 0 0 0 0 0 0 0 0 0 0 0 0 0 0 0 0 0 0 0 0 0 0 0 0 0 0 0 0 0 0 0 0 0 0 0 0 0 0 0 0 0 0 0 0 0 0 0 0 0 0 0 0 0 0 0 0 0 0 0 0 0 0 0 0 0 0 0 0 0 0 0 0 0 0 0 0 0 0 0 0 0 0 0 0 0 0 0 0 0 0 0 0 0 0 0 0 0 0 0 0 0 0 0 0 0 0 0 0 0 0 0 0 0 0 0 0 0 0 0 0 0 0 0 0 0 0 0 0 0 0 0 0 0 0
3.35647e-16 5.71535e-16 3.3159e-16 3.43033e-18 1.27201e-17 3.43033e-18 7.50744e-16 4.97972e-16 3.7107e-16 3.20034e-16 1.93444e-16 1.51921e-16 1.2324e-16 9.57215e-17 8.50814e-17 5.26129e-17 3.4879e-17 2.01022e-17 2.53122e-17 1.34008e-17 1.07471e-17 9.95059e-18 1.26851e-17 9.82613e-18 7.6924e-18 9.94099e-18 1.04836e-17 1.08622e-17 1.16464e-17 1.25804e-17 1.23808e-17 1.16232e-17 1.15339e-17 1.19428e-17 1.18401e-17 1.05691e-17 1.02911e-17 9.71162e-18 8.92501e-18 7.26716e-16 5.01497e-16 4.06349e-16 3.00871e-16 2.40083e-16 1.40314e-16 1.05137e-16 6.32593e-17 6.62444e-17 5.70859e-17 3.80819e-17 2.6803e-17 1.61229e-17 1.32271e-17 1.00207e-17 9.39972e-17 5.58757e-17 6.46741e-17 4.05192e-17 2.26062e-16 7.82001e-17 3.09543e-17 3.83214e-17 3.54631e-17 1.03358e-16 3.56062e-17 5.13982e-16 1.64944e-16 3.80736e-17 3.85522e-17 2.27864e-16 3.52814e-17 8.75188e-17 5.95045e-17 6.27634e-17 4.91748e-17 7.10484e-16 2.72916e-17 2.77974e-17 2.21975e-16 5.37871e-17 1.42057e-16 2.65694e-17 6.76599e-17 3.14092e-16 3.0375e-16 1.32089e-16 2.36329e-17 2.60167e-17 5.1996e-17 7.36719e-17 3.63712e-17 2.83295e-17 4.52694e-17 9.83441e-17 2.47132e-17 1.89653e-16 1.25448e-15 8.13859e-17 1.19497e-16 5.46153e-17 2.14141e-17 4.80989e-17 3.34092e-17 6.54513e-16 6.69898e-16 4.58102e-17 1.22977e-16 3.34081e-16 6.57562e-17 2.11827e-16 1.22211e-16 5.12464e-16 2.81955e-17 2.84917e-17 2.89879e-17 4.05828e-17 8.80633e-17 5.83861e-17 2.54132e-17 1.79205e-17 4.48463e-16 2.68438e-17 2.4777e-17 4.61794e-17 2.71134e-17 1.69745e-16 5.14227e-17 3.66482e-16 6.6902e-17 3.09093e-16 4.63492e-17 2.16756e-16 6.81974e-17 3.33349e-17 7.18434e-17 3.07526e-17 3.14194e-17 3.82051e-17 1.15689e-16 3.75741e-17 7.93755e-16 3.13251e-17 1.5913e-16 2.02469e-16 2.24918e-16 6.33819e-17 4.42289e-17 1.48325e-16 2.58035e-17 1.06015e-15 2.78826e-17 7.28577e-16 2.73957e-16 1.07162e-15 2.70841e-17 4.74782e-17 1.02298e-16 4.22529e-17 2.41873e-17 6.28599e-16 1.63173e-16 2.59197e-17 5.13316e-17 3.85086e-17 2.59926e-17 3.60446e-16 4.65129e-17 1.04272e-16 7.75642e-17 3.0758e-17 1.89299e-17 8.28902e-17 5.8432e-17 2.10418e-16 1.02785e-16 7.54665e-17 1.9654e-17 2.80677e-17 7.58061e-17 3.02198e-16 1.85655e-17 2.19184e-17 1.17695e-15 1.1718e-15 4.34192e-17 1.56815e-16 9.0194e-17 1.94664e-17 5.05449e-17 2.34658e-16 7.29601e-17 7.76051e-17 7.14712e-17 3.29477e-17 1.26369e-16 3.50666e-17 1.90104e-17 2.17454e-17 2.11381e-17 2.04072e-17 6.10789e-17 2.84131e-17 2.79581e-17 9.60075e-17 4.16502e-17 3.3627e-17 2.55154e-17 5.1999e-17 3.88019e-16 1.80498e-17 1.43643e-17 1.31309e-17
0 0 0 2.5e-09 5e-09 2.5e-09 0 0 0 0 0 0 0 0 0 0 0 0 0 0 0 5e-09 5e-09 5e-09 5e-09 5e-09 5e-09 5e-09 5e-09 5e-09 5e-09 5e-09 5e-09 5e-09 5e-09 5e-09 5e-09 5e-09 5e-09 0 0 0 0 0 0 0 0 0 0 0 0 0 0 0 0 0 0 0 0 0 0 0 0 0 0 0 0 0 0 0 0 0 0 0 0 0 0 0 0 0 0 0 0 0 0 0 0 0 0 0 0 0 0 0 0 0 0 0 0 0 0 0 0 0 0 0 0 0 0 0 0 0 0 0 0 0 0 0 0 0 0 0 0 0 0 0 0 0 0 0 0 0 0 0 0 0 0 0 0 0 0 0 0 0 0 0 0 0 0 0 0 0 0 0 0 0 0 0 0 0 0 0 0 0 0 0 0 0 0 0 0 0 0 0 0 0 0 0 0 0 0 0 0 0 0 0 0 0 0 0 0 0 0 0 0 0 0 0 0 0 0 0 0 0 0 0 0 0 0 0 0 0
0 1 2 3 4 5 10 11 12 13 14 15 16 17 18 19 20 21 22 23 24 25 26 27 28 29 30 31 32 33 34 35 36 37 38 39 40 41 42 43 44 45 46 47 48 49 50 51 52 53 54 55 56 57 377 378 379 380 381 382 383 384 385 386 387 388 389 390 391 392 393 394 395 396 397 398 399 400 401 402 403 404 405 406 407 408 409 410 411 412 413 414 415 416 417 418 419 420 421 422 423 424 425 426 427 428 429 430 431 432 433 434 435 436 437 438 439 440 441 442 443 444 445 446 447 448 449 450 451 452 453 454 455 456 457 458 459 460 461 462 463 464 465 466 467 468 469 470 471 472 473 474 475 476 477 478 479 480 481 482 483 484 485 486 487 488 489 490 491 492 493 494 495 496 497 498 499 500 501 502 503 504 505 506 507 508 509 510 511 512 513 514 515 516 517 518 519 520 521 522 523 524 525 526 527 528 529 530 531 532 533 534
0 1 2 3 4 5 6 7 8 9 10 11 12 13 14 15 16 17 18 19 20 21 22 23 24 25 26 27 28 29 30 31 32 33 34 35 36 37 38 39 40 41 42 43 44 45 46 47 48 49 50 51 52 53 54 55 56 57 58 59 60 61 62 63 64 65 66 67 68 69 70 71 72 73 74 75 76 77 78 79 80 81 82 83 84 85 86 87 88 89 90 91 92 93 94 95 96 97 98 99 100 101 102 103 104 105 106 107 108 109 110 111 112 113 114 115 116 117 118 119 120 121 122 123 124 125 126 127 128 129 130 131 132 133 134 135 136 137 138 139 140 141 142 143 144 145 146 147 148 149 150 151 152 153 154 155 156 157 158 159 160 161 162 163 164 165 166 167 168 169 170 171 172 173 174 175 176 177 178 179 180 181 182 183 184 185 186 187 188 189 190 191 192 193 194 195 196 197 198 199 200 201 202 203 204 205 206 207 208 209 210 211
1.16635e-08 1.69126e-08 1.16264e-08 1.25118e-09 2.3983e-09 1.25118e-09 1.54281e-08 1.48312e-08 1.27672e-08 1.17783e-08 9.33318e-09 8.24678e-09 7.43575e-09 6.47119e-09 6.10386e-09 4.98394e-09 3.1225e-09 3.06259e-09 2.62117e-09 2.47251e-09 1.76501e-09 2.19305e-09 2.43748e-09 2.1013e-09 1.86699e-09 2.10806e-09 2.14575e-09 2.19692e-09 2.259e-09 2.3856e-09 2.33539e-09 2.27292e-09 2.25883e-09 2.29669e-09 2.27808e-09 2.17785e-09 2.13692e-09 2.1174e-09 1.6007e-09 1.51267e-08 1.49019e-08 1.34317e-08 1.14909e-08 1.02434e-08 7.93794e-09 5.35312e-09 5.43276e-09 5.38743e-09 4.98918e-09 4.12721e-09 2.73676e-09 2.72116e-09 2.44478e-09 1.69441e-09 7.44856e-09 4.67612e-09 4.35112e-09 4.92102e-09 9.53438e-09 6.7819e-09 2.9788e-09 3.30563e-09 3.77335e-09 5.46817e-09 3.78872e-09 1.4374e-08 6.98454e-09 3.33605e-09 3.90712e-09 9.59852e-09 3.77293e-09 5.00579e-09 5.91966e-09 4.99078e-09 4.38664e-09 2.03645e-08 2.78273e-09 2.7917e-09 9.40744e-09 3.92533e-09 9.28104e-09 2.76128e-09 6.33548e-09 1.136e-08 1.36024e-08 6.16928e-09 3.74995e-09 3.22443e-09 4.62665e-09 5.41139e-09 3.87737e-09 4.12637e-09 5.14978e-09 6.21898e-09 3.13014e-09 7.51081e-09 2.45182e-08 5.6376e-09 8.4887e-09 3.94862e-09 2.98471e-09 3.74795e-09 3.10616e-09 1.59039e-08 1.36773e-08 3.59545e-09 6.20765e-09 8.39222e-09 5.06708e-09 7.84746e-09 5.85902e-09 1.20554e-08 2.82702e-09 2.84011e-09 2.85569e-09 3.40326e-09 4.95814e-09 4.07558e-09 2.71788e-09 2.73638e-09 1.33853e-08 2.74895e-09 2.65252e-09 4.26704e-09 2.75111e-09 7.04709e-09 4.52236e-09 1.02216e-08 5.19345e-09 9.63885e-09 3.65783e-09 1.13562e-08 5.24939e-09 3.68706e-09 4.51222e-09 2.94947e-09 3.54677e-09 4.75744e-09 6.72903e-09 3.90492e-09 1.76363e-08 4.28843e-09 7.93782e-09 1.09686e-08 8.00108e-09 5.01033e-09 4.26982e-09 5.72299e-09 3.20824e-09 2.06554e-08 4.03403e-09 1.68914e-08 1.04217e-08 2.07785e-08 3.9902e-09 4.28797e-09 7.79589e-09 5.06924e-09 3.75961e-09 1.57072e-08 9.77142e-09 3.89513e-09 3.8922e-09 4.81305e-09 3.90156e-09 1.46265e-08 4.34757e-09 5.59125e-09 5.51141e-09 4.29047e-09 3.35808e-09 5.70617e-09 4.84856e-09 1.11475e-08 6.45201e-09 5.44515e-09 3.42055e-09 3.36955e-09 6.89283e-09 1.35197e-08 3.31764e-09 3.57387e-09 2.73027e-08 2.72277e-08 5.05061e-09 9.68171e-09 7.2797e-09 2.8179e-09 4.47472e-09 1.19997e-08 5.34006e-09 5.49634e-09 5.40443e-09 4.42509e-09 8.71986e-09 3.77675e-09 3.3374e-09 3.61154e-09 3.58744e-09 3.4596e-09 6.08332e-09 4.14901e-09 3.32051e-09 7.71489e-09 4.99167e-09 4.48265e-09 3.17267e-09 4.49986e-09 1.27975e-08 3.31124e-09 3.79591e-09 3.62442e-09
2.30749e+07 2.48274e+07 2.31396e+07 2.24064e+08 1.88191e+08 2.24064e+08 2.42416e+07 2.93456e+07 3.37053e+07 3.70464e+07 4.70401e+07 5.22424e+07 5.94801e+07 6.68803e+07 7.28449e+07 9.21174e+07 1.07935e+08 1.39988e+08 1.28902e+08 1.76495e+08 1.95346e+08 2.13586e+08 1.86524e+08 2.08359e+08 2.26151e+08 2.07786e+08 2.02892e+08 2.00398e+08 1.94762e+08 1.89318e+08 1.90353e+08 1.95179e+08 1.9581e+08 1.92812e+08 1.93575e+08 2.02891e+08 2.0489e+08 2.07855e+08 2.11826e+08 2.44116e+07 2.91273e+07 3.24822e+07 3.82728e+07 4.27753e+07 5.51265e+07 6.14951e+07 7.835e+07 7.9575e+07 8.76724e+07 1.05639e+08 1.24449e+08 1.55106e+08 1.75745e+08 2.01411e+08 1.00767e+08 1.24945e+08 1.16254e+08 1.5197e+08 6.19285e+07 1.09885e+08 1.69175e+08 1.48999e+08 1.59112e+08 8.99823e+07 1.58604e+08 4.14782e+07 7.05585e+07 1.48444e+08 1.52718e+08 6.16069e+07 1.58749e+08 9.79022e+07 1.24239e+08 1.19836e+08 1.33104e+08 3.62733e+07 1.75819e+08 1.76047e+08 6.34202e+07 1.27346e+08 8.20967e+07 1.77836e+08 1.17631e+08 5.22765e+07 5.5402e+07 8.0027e+07 1.99108e+08 1.81712e+08 1.35456e+08 1.08712e+08 1.54642e+08 1.83512e+08 1.42415e+08 9.58224e+07 1.86771e+08 6.87134e+07 2.71198e+07 1.05889e+08 8.88144e+07 1.23482e+08 1.99354e+08 1.31257e+08 1.58971e+08 3.64434e+07 3.60836e+07 1.35375e+08 8.73767e+07 4.97349e+07 1.16195e+08 6.26665e+07 8.29399e+07 4.15404e+07 1.73979e+08 1.71721e+08 1.70187e+08 1.43875e+08 9.78424e+07 1.20427e+08 1.82879e+08 2.21101e+08 4.41843e+07 1.7691e+08 1.8572e+08 1.38577e+08 1.77629e+08 7.25928e+07 1.32353e+08 4.87402e+07 1.13647e+08 5.27831e+07 1.3395e+08 6.57893e+07 1.14082e+08 1.61155e+08 1.07778e+08 1.65911e+08 1.72078e+08 1.59066e+08 8.70339e+07 1.54626e+08 3.3181e+07 1.71677e+08 7.4039e+07 6.74681e+07 6.12108e+07 1.17333e+08 1.44812e+08 7.35854e+07 1.85158e+08 2.90711e+07 1.8228e+08 3.46256e+07 5.61131e+07 2.87829e+07 1.83749e+08 1.35454e+08 9.73274e+07 1.47278e+08 1.95126e+08 3.71063e+07 7.49781e+07 1.88751e+08 1.28099e+08 1.55171e+08 1.89948e+08 5.057e+07 1.35325e+08 8.87155e+07 1.10972e+08 1.80616e+08 2.22624e+08 1.03078e+08 1.21532e+08 6.64546e+07 9.21067e+07 1.07302e+08 2.17513e+08 1.73881e+08 1.09585e+08 5.48808e+07 2.21749e+08 2.04215e+08 2.7786e+07 2.7831e+07 1.45483e+08 7.68809e+07 1.01327e+08 2.1064e+08 1.30604e+08 6.26632e+07 1.09288e+08 1.05899e+08 1.1233e+08 1.69823e+08 8.5723e+07 1.57476e+08 2.20226e+08 2.05258e+08 2.06698e+08 2.11815e+08 1.22055e+08 1.80532e+08 1.75951e+08 9.9708e+07 1.5139e+08 1.64511e+08 1.84687e+08 1.29841e+08 4.80683e+07 2.24333e+08 2.65556e+08 2.7606e+08
4.39775e-08 4.18606e-08 4.38884e-08 4.58391e-09 5.39009e-09 4.58391e-09 4.20089e-08 3.42705e-08 2.98451e-08 2.70989e-08 2.18246e-08 1.93039e-08 1.72264e-08 1.49992e-08 1.38682e-08 1.10807e-08 9.52565e-09 7.3584e-09 7.86219e-09 5.82279e-09 5.32287e-09 4.81874e-09 5.49548e-09 4.85873e-09 4.48215e-09 4.86584e-09 4.95386e-09 5.03647e-09 5.15534e-09 5.3597e-09 5.28789e-09 5.16838e-09 5.14263e-09 5.22309e-09 5.18882e-09 4.99319e-09 4.92238e-09 4.90053e-09 4.81962e-09 4.16908e-08 3.45464e-08 3.09867e-08 2.62978e-08 2.34389e-08 1.85776e-08 1.63624e-08 1.3204e-08 1.26305e-08 1.15004e-08 9.59801e-09 8.26503e-09 6.58419e-09 5.86194e-09 5.13091e-09 1.00451e-08 8.05749e-09 8.75127e-09 6.68479e-09 1.63776e-08 9.21081e-09 6.15486e-09 6.82015e-09 6.47473e-09 1.13523e-08 6.44996e-09 2.4652e-08 1.44163e-08 6.86728e-09 6.62145e-09 1.64879e-08 6.36787e-09 1.03026e-08 8.05718e-09 8.52885e-09 7.54747e-09 2.79641e-08 5.71923e-09 5.7348e-09 1.61406e-08 7.929e-09 1.24425e-08 5.73295e-09 8.53874e-09 1.95532e-08 1.83747e-08 1.27884e-08 5.09159e-09 5.57378e-09 7.65744e-09 9.40567e-09 6.74918e-09 5.52581e-09 7.03683e-09 1.05689e-08 5.41674e-09 1.49523e-08 3.84261e-08 9.64946e-09 1.14248e-08 8.17495e-09 5.15033e-09 7.72524e-09 6.44025e-09 2.75097e-08 2.81488e-08 7.46309e-09 1.1804e-08 2.02502e-08 8.7717e-09 1.63515e-08 1.21278e-08 2.44128e-08 5.83774e-09 5.88544e-09 5.92591e-09 7.06393e-09 1.02637e-08 8.41944e-09 5.61972e-09 4.61622e-09 2.29807e-08 5.69335e-09 5.47131e-09 7.35031e-09 5.65754e-09 1.42568e-08 7.6926e-09 2.09455e-08 8.99232e-09 1.92878e-08 7.56512e-09 1.53615e-08 8.97796e-09 6.37434e-09 9.35595e-09 6.06565e-09 5.94002e-09 6.36862e-09 1.15833e-08 6.59369e-09 3.04474e-08 5.86734e-09 1.37288e-08 1.50252e-08 1.65531e-08 8.67355e-09 7.09224e-09 1.38059e-08 5.46216e-09 3.49552e-08 5.51442e-09 2.91488e-08 1.79594e-08 3.51728e-08 5.47928e-09 7.39377e-09 1.04748e-08 6.84529e-09 5.13719e-09 2.71758e-08 1.33542e-08 5.32172e-09 8.02955e-09 6.6247e-09 5.30908e-09 1.98779e-08 7.49724e-09 1.15537e-08 9.25875e-09 5.61767e-09 4.55424e-09 9.7961e-09 8.31855e-09 1.51244e-08 1.11271e-08 9.39305e-09 4.6391e-09 5.86056e-09 9.30947e-09 1.86041e-08 4.55995e-09 4.90449e-09 3.65027e-08 3.64419e-08 6.89052e-09 1.31946e-08 9.93742e-09 4.88253e-09 7.76939e-09 1.64583e-08 9.20708e-09 9.49153e-09 9.09523e-09 5.96227e-09 1.19251e-08 6.6013e-09 4.55644e-09 4.93906e-09 4.946e-09 4.74899e-09 8.36791e-09 5.63828e-09 5.74237e-09 1.03013e-08 6.71387e-09 6.16244e-09 5.49282e-09 7.74844e-09 2.13682e-08 4.54899e-09 3.79503e-09 3.62317e-09
1 3 5.33333 9 12.5 16 15.8 21.75 25 28 31 34 37 40 43 46 49.6 52.75 56.6 59.75 52 52.5 69 72 75 78 81 84 87 69.75 72.75 95 98 101 104 107 110 113 95.8 97.6 122.75 126 129 132 135 138.6 141.75 145 148 151 154.6 157.75 161 134.4 169 174.5 181 187 192.5 198 204 211 217.5 224 230.5 236.5 243 250 256.5 262.5 268.5 275 281 286.5 292.5 298 304 311 317.5 324 330 336 342 347.5 353 341.571 364 342.167 341.333 361.167 318.667 388 393 359.5 373.833 282.143 297.5 327.167 343.8 332 390 333 275 266.667 322 346.714 302.143 310.625 397.5 374 331.571 287.286 318.143 318.571 319.286 397 384.286 363.143 280.429 343 339.833 332.429 341.571 350.5 343.714 380.571 358 349.714 384.667 421.286 368.714 376.6 366.5 403.667 397.286 370.714 310.167 379.4 361.833 376 342.833 351.2 403.833 241 404.571 384.833 410.833 399.625 318 308.5 375.4 314.667 404.5 340.167 367 411 359.8 339.8 276 417.167 399.8 255.2 419 275.8 280.2 424.8 415.5 392 436.667 411.2 312.2 405.167 354.833 328.8 424.5 393.333 415.6 416.167 268.6 267.2 310.8 303 202.6 224.2 398.8 425.6 427.2 338.333 430.5 406.2 455 448.333 443.833 400 343.2 420.667 421.6 330.8 289.4 314.8 375.8 355.4 433.5 426.2 302.4 423.6 429.5 465.333 434 307 157.75 198
0.579371 0.501471 0.087131 0.565309 0.0234836 -0.565309 0.504816 0.425353 0.439906 0.428899 0.414755 0.410977 0.426784 0.424777 0.43316 0.463563 0.481069 0.439385 0.490115 0.460555 0.472687 0.355139 0.44701 0.513883 0.496248 0.454407 0.52721 0.468832 0.52 -0.0340172 0.477611 0.531389 0.465198 0.51406 0.479182 0.540321 0.452907 0.457732 -0.00772144 -0.504219 -0.424348 -0.428736 -0.449725 -0.405456 -0.429459 -0.461157 -0.424927 -0.431292 -0.434823 -0.453446 -0.481599 -0.410005 -0.436206 -0.476185 -0.0266907 0.0324576 -0.0280616 -0.0077126 -0.107088 0.0242059 -0.00314968 -0.00382112 0.0563634 0.000121321 -0.00186312 -0.0425732 0.0757056 -0.0362632 0.0567847 -0.00947226 -0.131157 0.00603674 0.0577524 -0.0177464 -0.0179822 0.00292701 0.0327907 0.0306785 0.0251046 -0.0788879 -0.00410863 -0.0547076 0.031659 0.0742944 0.0375617 0.265073 0.0163723 -0.00166028 0.292882 0.344127 0.190365 0.012984 0.017652 -0.317951 -0.00334847 0.331335 0.00267312 -0.573851 -0.210002 -0.141992 -0.0312041 -0.0328032 -0.01015 0.281588 -0.260212 0.0400914 0.359639 0.27837 0.025447 0.146028 -0.303169 0.132888 -0.0151517 -0.00384433 -0.0071245 0.149823 0.0607683 -0.170386 -0.038266 -0.0495261 -0.286416 0.0014454 -0.0182573 0.236027 0.0206246 -0.0402072 -0.260539 -0.135352 0.00229905 0.0165323 -0.143108 0.0671572 -0.290728 -0.228262 0.0443072 -0.167757 0.186719 -0.101608 -0.255033 0.194635 -0.273801 -0.0160504 -0.00740148 0.0206539 0.154316 0.292003 -0.0212588 -0.0762001 0.229918 0.212509 0.0397824 0.21566 0.0163881 0.0828721 0.0150959 -0.0478537 0.353063 -0.0706207 0.00890421 0.0252262 -0.0485471 -0.021126 0.192572 0.0116272 -0.000933394 0.337419 0.346276 0.226619 -0.18989 -0.244221 -0.375332 0.149308 -0.288151 0.0268205 -0.156201 -0.252612 0.0831414 0.281799 0.0682045 -0.0207492 0.0140802 -0.0025235 0.238106 0.162709 0.0584589 -0.00949955 0.0308881 -0.0532923 -0.00762331 0.0749978 -0.227107 0.0138937 0.0136377 -0.121578 0.0149056 0.0251766 0.0277476 -0.025423 -0.000316945 0.00156991 -0.00390763 0.0288696 0.0408192 -0.164586 -0.0356651 -0.0506673 -0.024702 0.0291979 0.0981138 -0.0724249 -0.00554654 0.00204325
0.558226 0.371193 0.558045 -0.572704 -0.4501 -0.572704 0.439989 0.598547 0.5297 0.523692 0.548292 0.44697 0.5142 0.445278 0.49977 0.456005 0.395822 0.400697 0.34826 0.462878 -0.0216953 -0.427826 -0.42762 -0.401806 -0.394463 -0.412407 -0.426548 -0.431307 -0.440365 -0.446378 -0.441054 -0.440402 -0.440173 -0.440932 -0.438751 -0.428142 -0.428195 -0.455863 -0.483954 0.43847 0.588316 0.562943 0.557681 0.524318 0.563899 0.477468 0.556935 0.480301 0.496133 0.437825 0.429067 0.4859 0.457524 -0.00437304 0.0836528 -0.0276606 0.0429434 0.00859535 -0.0252451 0.0287748 0.0241828 0.0387756 -0.0707976 -0.00979414 0.0515465 0.0183222 0.0749476 0.0506612 0.103682 -0.0224441 0.0797335 0.0199294 0.0223636 0.0680082 -0.00263828 -0.00226257 0.00559834 0.0412113 0.0379779 0.115374 -0.0365025 0.0127913 0.105382 0.000273025 -0.00245529 0.0207876 0.0790574 0.361611 0.1273 -0.0155979 0.238464 0.00853243 0.0430348 0.000995653 0.350309 0.219823 0.0476652 0.0452179 0.218838 0.00910425 0.0309614 0.151699 -0.13252 -0.145236 0.0460856 -0.167588 0.106937 -0.0213609 -0.0114202 0.0281413 -0.27834 0.261497 -0.15796 -0.142251 -0.147781 -0.047937 -0.161316 -0.00379609 -0.173471 -0.026249 0.217899 -0.157759 -0.139515 -0.129455 -0.176683 0.303571 -0.195775 0.30198 -0.306431 -0.143726 -0.234523 -0.390993 -0.18167 -0.124081 -0.169971 -0.0119604 0.179782 0.28039 -0.160701 -0.0359475 -0.139833 -0.0349138 0.0216357 -0.035354 0.0384992 -0.123041 -0.0243962 -0.0835584 0.0292381 0.23175 -0.0209955 0.182058 -0.0264318 -0.10323 0.0037262 -0.341032 0.0544181 -0.0796477 -0.034356 0.0527414 0.0266397 -0.039845 0.282751 -0.410989 -0.0614574 -0.124444 0.0974494 0.0671872 0.221075 0.0812019 -0.0525692 -0.262883 -0.231032 -0.0709778 0.250966 -0.0481073 -0.23548 -0.318763 -0.151667 -0.00701686 0.0102817 -0.0219751 0.0235143 0.0199194 0.0197293 -0.0464353 0.0181566 0.0472781 -0.249834 -0.0843454 -0.315735 0.00288534 -0.134639 0.288578 -0.0484726 0.355649 0.00637242 -0.0767897 -0.0854416 -0.02529 -0.00116926 -0.104602 0.0286467 -0.0372791 -0.0895864 -0.0335049 -0.0120713 -0.0134124 -0.062576 0.00671754 -0.00554654 -0.00200293
1.17961e-08 1.1158e-08 1.17765e-08 1.09182e-08 1.11324e-08 1.26261e-09 1.18661e-09 1.74163e-09 1.45038e-09 1.62063e-09 1.18661e-09 1.26261e-09 1.08587e-08 1.21269e-08 1.41516e-08 9.02497e-09 9.29006e-09 8.40347e-09 8.06385e-09 7.19438e-09 7.90227e-09 5.33126e-09 6.08965e-09 5.66613e-09 5.50629e-09 4.25203e-09 5.01769e-09 4.36398e-09 4.31253e-09 3.65482e-09 4.22211e-09 3.00022e-09 3.20531e-09 2.20209e-09 2.77645e-09 2.21978e-09 2.18582e-09 1.69971e-09 1.89896e-09 2.123e-09 2.30399e-09 1.59008e-09 1.4363e-09 1.56604e-09 1.33257e-09 1.72297e-09 1.33257e-09 1.47036e-09 1.76588e-09 1.2579e-09 1.45492e-09 1.25223e-09 1.23427e-09 1.51921e-09 1.42678e-09 1.32919e-09 1.44046e-09 1.5869e-09 1.47938e-09 1.42123e-09 1.51058e-09 1.61762e-09 1.64081e-09 1.58398e-09 1.38197e-09 1.52441e-09 1.62454e-09 1.50667e-09 1.42678e-09 1.55218e-09 1.5957e-09 1.53531e-09 1.2929e-09 1.46566e-09 1.55396e-09 1.4161e-09 1.36414e-09 1.34469e-09 1.388e-09 1.25987e-09 1.06895e-08 1.19546e-08 1.37959e-08 9.27347e-09 9.53158e-09 8.65921e-09 8.89383e-09 6.94988e-09 7.02136e-09 6.20665e-09 7.14609e-09 4.6538e-09 4.91015e-09 3.97412e-09 4.42625e-09 4.0639e-09 3.68565e-09 3.28011e-09 3.61425e-09 3.49937e-09 3.03921e-09 3.34988e-09 2.65304e-09 2.56854e-09 1.906e-09 2.46885e-09 1.83527e-09 1.85816e-09 1.74381e-09 1.54851e-09 1.54096e-09 1.47147e-09 1.21096e-09 3.35005e-09 2.68929e-09 3.0803e-09 2.7376e-09 3.58199e-09 2.43353e-09 2.33803e-09 2.56022e-09 2.30629e-09 2.23341e-09 2.11432e-09 2.72794e-09 2.53667e-09 2.32924e-09 2.01665e-09 2.63848e-09 2.50676e-09 2.57607e-09 2.20466e-09 2.11811e-09 1.87487e-09 2.25556e-09 1.81091e-09 4.47745e-09 4.81024e-09 5.24706e-09 4.82809e-09 4.18921e-09 4.95498e-09 3.06872e-09 3.29478e-09 2.57834e-09 2.53666e-09 2.64569e-09 2.27647e-09 2.01994e-09 1.84395e-09 1.43395e-09 1.34675e-09 1.50024e-09 1.6281e-09 1.70547e-09 1.6553e-09 1.99801e-09 2.03527e-09 2.09067e-09 2.13101e-09 1.6616e-09 2.2462e-09 2.20036e-09 1.76205e-09 1.80522e-09 1.61066e-09 1.67383e-09 3.08524e-09 3.4032e-09 3.45847e-09 3.36678e-09 2.7388e-09 3.28296e-09 2.78489e-09 1.63948e-09 1.55324e-09 2.22802e-09 2.08451e-09 1.71833e-09 2.02535e-09 7.93821e-09 7.337e-09 7.82885e-09 7.25601e-09 6.86503e-09 6.03792e-09 3.99656e-09 4.16091e-09 4.06917e-09 3.40183e-09 4.13617e-09 4.23125e-09 4.19645e-09 2.14832e-09 2.24845e-09 1.91196e-09 1.82772e-09 1.80309e-09 1.79649e-09 1.66979e-09 2.18081e-09 1.72978e-09 2.22719e-09 1.85434e-09 1.7764e-09 1.76214e-09 4.60279e-09 4.5038e-09 5.12448e-09 4.9409e-09 5.02996e-09 4.50181e-09 2.03862e-09 1.63806e-09 2.11935e-09 1.87526e-09 1.74755e-09 1.67534e-09 2.92629e-09 2.63921e-09 3.21876e-09 2.99871e-09 2.94452e-09 2.5956e-09 2.64242e-09 2.26498e-09 2.53102e-09 2.55364e-09 2.39201e-09 2.5816e-09 2.89203e-09 2.27537e-09 2.75773e-09 2.63674e-09 2.31093e-09 2.03215e-09 2.13302e-09 1.97283e-09 2.18597e-09 2.29911e-09 2.17537e-09 2.31596e-09 8.8221e-09 7.7262e-09 8.48096e-09 1.00532e-08 7.75349e-09 1.63479e-09 1.56228e-09 1.71361e-09 1.49161e-09 1.5056e-09 1.72328e-09 1.44921e-09 1.39656e-09 1.41283e-09 1.76007e-09 1.47319e-09 1.62302e-09 1.80791e-09 1.63885e-09 5.51057e-09 5.07809e-09 3.88433e-09 4.1023e-09 5.21025e-09 4.39608e-09 2.0744e-09 2.06424e-09 2.29861e-09 2.04562e-09 2.70904e-09 2.31603e-09 1.90522e-09 4.78138e-09 3.81034e-09 3.37145e-09 3.62609e-09 3.58357e-09 1.61509e-09 1.51018e-09 1.80891e-09 1.56435e-09 1.7238e-09 1.42471e-09 1.51383e-09 2.63999e-09 2.86519e-09 2.25472e-09 2.82013e-09 2.5027e-09 5.74946e-09 5.91688e-09 5.84985e-09 5.86888e-09 5.61819e-09 5.15809e-09 6.6624e-09 5.63831e-09 5.30351e-09 4.97971e-09 6.34819e-09 3.06263e-09 3.41925e-09 3.85888e-09 3.55769e-09 2.9039e-09 1.62442e-09 1.38596e-09 1.66408e-09 1.42699e-09 1.72505e-09 1.60219e-09 1.54196e-09 1.65655e-09 1.54905e-09 2.09356e-09 1.82276e-09 2.64055e-09 1.86685e-09 2.73033e-09 2.51407e-09 2.87039e-09 2.66383e-09 1.69095e-09 1.56321e-09 1.60775e-09 1.59294e-09 2.13301e-09 1.5733e-09 1.64667e-09 2.05303e-09 2.02716e-09 2.21476e-09 2.15007e-09 2.32549e-09 3.76631e-09 2.95316e-09 2.85993e-09 2.76841e-09 1.55288e-09 1.49333e-09 1.66462e-09 1.52917e-09 4.06733e-09 3.78354e-09 1.01403e-08 1.07455e-08 3.07599e-09 2.50464e-09 2.28491e-09 3.61457e-09 2.23359e-09 1.42835e-09 1.26303e-09 2.07335e-09 7.98728e-09 6.38782e-09 8.58312e-09 2.03153e-09 2.89394e-09 5.26518e-09 2.90734e-09 2.33857e-09 4.42173e-09 3.16011e-09 2.07564e-09 6.29616e-09